  842

    1
0.0000000000e+00 0.0000000000e+00 0.0000000000e+00
0.0000000000e+00 0.0000000000e+00 0.0000000000e+00
     1      1      1
 1  1  1     0.0000000000e+00
 1  1  2     0.0000000000e+00
 1  1  3     0.0000000000e+00
 1  2  1     0.0000000000e+00
 1  2  2     0.0000000000e+00
 1  2  3     3.4030290919e+01
 1  3  1     0.0000000000e+00
 1  3  2     3.4030290919e+01
 1  3  3     0.0000000000e+00
 2  1  1     0.0000000000e+00
 2  1  2     0.0000000000e+00
 2  1  3     3.4030290919e+01
 2  2  1     0.0000000000e+00
 2  2  2     0.0000000000e+00
 2  2  3     0.0000000000e+00
 2  3  1     3.4030290919e+01
 2  3  2     0.0000000000e+00
 2  3  3     0.0000000000e+00
 3  1  1     0.0000000000e+00
 3  1  2     3.4030290919e+01
 3  1  3     0.0000000000e+00
 3  2  1     3.4030290919e+01
 3  2  2     0.0000000000e+00
 3  2  3     0.0000000000e+00
 3  3  1     0.0000000000e+00
 3  3  2     0.0000000000e+00
 3  3  3     0.0000000000e+00

    2
0.0000000000e+00 0.0000000000e+00 0.0000000000e+00
0.0000000000e+00 0.0000000000e+00 0.0000000000e+00
     1      1      2
 1  1  1    -3.1502442714e+00
 1  1  2    -6.3055208078e+00
 1  1  3    -6.3055208078e+00
 1  2  1    -6.3253578093e+00
 1  2  2    -6.3253578093e+00
 1  2  3    -8.6149541812e+00
 1  3  1    -6.3253578093e+00
 1  3  2    -8.6149541812e+00
 1  3  3    -6.3253578093e+00
 2  1  1    -6.3253578093e+00
 2  1  2    -6.3253578093e+00
 2  1  3    -8.6149541812e+00
 2  2  1    -6.3055208078e+00
 2  2  2    -3.1502442714e+00
 2  2  3    -6.3055208078e+00
 2  3  1    -8.6149541812e+00
 2  3  2    -6.3253578093e+00
 2  3  3    -6.3253578093e+00
 3  1  1    -6.3253578093e+00
 3  1  2    -8.6149541812e+00
 3  1  3    -6.3253578093e+00
 3  2  1    -8.6149541812e+00
 3  2  2    -6.3253578093e+00
 3  2  3    -6.3253578093e+00
 3  3  1    -6.3055208078e+00
 3  3  2    -6.3055208078e+00
 3  3  3    -3.1502442714e+00

    3
0.0000000000e+00 0.0000000000e+00 0.0000000000e+00
0.0000000000e+00 2.6941152656e+00 2.6941152656e+00
     1      1      1
 1  1  1     1.3890940342e-02
 1  1  2     1.0386398351e-01
 1  1  3     1.0386398351e-01
 1  2  1     6.4157809562e-02
 1  2  2    -6.4375961336e-02
 1  2  3     7.8577474687e-02
 1  3  1     6.4157809562e-02
 1  3  2     7.8577474687e-02
 1  3  3    -6.4375961336e-02
 2  1  1     6.4157809562e-02
 2  1  2    -6.4375961336e-02
 2  1  3     7.8577474687e-02
 2  2  1    -1.1086710934e-01
 2  2  2    -1.2791238727e-01
 2  2  3    -1.6838612969e-01
 2  3  1    -4.3264063024e-02
 2  3  2    -1.8397202668e-01
 2  3  3    -1.8397202668e-01
 3  1  1     6.4157809562e-02
 3  1  2     7.8577474687e-02
 3  1  3    -6.4375961336e-02
 3  2  1    -4.3264063024e-02
 3  2  2    -1.8397202668e-01
 3  2  3    -1.8397202668e-01
 3  3  1    -1.1086710934e-01
 3  3  2    -1.6838612969e-01
 3  3  3    -1.2791238727e-01

    4
0.0000000000e+00 0.0000000000e+00 0.0000000000e+00
0.0000000000e+00 -2.6941152656e+00 -2.6941152656e+00
     1      1      1
 1  1  1     1.3890940342e-02
 1  1  2    -1.0386398351e-01
 1  1  3    -1.0386398351e-01
 1  2  1    -6.4157809562e-02
 1  2  2    -6.4375961336e-02
 1  2  3     7.8577474687e-02
 1  3  1    -6.4157809562e-02
 1  3  2     7.8577474687e-02
 1  3  3    -6.4375961336e-02
 2  1  1    -6.4157809562e-02
 2  1  2    -6.4375961336e-02
 2  1  3     7.8577474687e-02
 2  2  1    -1.1086710934e-01
 2  2  2     1.2791238727e-01
 2  2  3     1.6838612969e-01
 2  3  1    -4.3264063024e-02
 2  3  2     1.8397202668e-01
 2  3  3     1.8397202668e-01
 3  1  1    -6.4157809562e-02
 3  1  2     7.8577474687e-02
 3  1  3    -6.4375961336e-02
 3  2  1    -4.3264063024e-02
 3  2  2     1.8397202668e-01
 3  2  3     1.8397202668e-01
 3  3  1    -1.1086710934e-01
 3  3  2     1.6838612969e-01
 3  3  3     1.2791238727e-01

    5
0.0000000000e+00 0.0000000000e+00 0.0000000000e+00
0.0000000000e+00 -2.6941152656e+00 -2.6941152656e+00
     1      1      2
 1  1  1    -3.1502442714e+00
 1  1  2     6.3055208078e+00
 1  1  3     6.3055208078e+00
 1  2  1     6.3253578093e+00
 1  2  2    -6.3253578093e+00
 1  2  3    -8.6149541812e+00
 1  3  1     6.3253578093e+00
 1  3  2    -8.6149541812e+00
 1  3  3    -6.3253578093e+00
 2  1  1     6.3253578093e+00
 2  1  2    -6.3253578093e+00
 2  1  3    -8.6149541812e+00
 2  2  1    -6.3055208078e+00
 2  2  2     3.1502442714e+00
 2  2  3     6.3055208078e+00
 2  3  1    -8.6149541812e+00
 2  3  2     6.3253578093e+00
 2  3  3     6.3253578093e+00
 3  1  1     6.3253578093e+00
 3  1  2    -8.6149541812e+00
 3  1  3    -6.3253578093e+00
 3  2  1    -8.6149541812e+00
 3  2  2     6.3253578093e+00
 3  2  3     6.3253578093e+00
 3  3  1    -6.3055208078e+00
 3  3  2     6.3055208078e+00
 3  3  3     3.1502442714e+00

    6
0.0000000000e+00 0.0000000000e+00 0.0000000000e+00
2.6941152656e+00 0.0000000000e+00 2.6941152656e+00
     1      1      1
 1  1  1    -1.2791238727e-01
 1  1  2    -1.1086710934e-01
 1  1  3    -1.6838612969e-01
 1  2  1    -6.4375961336e-02
 1  2  2     6.4157809562e-02
 1  2  3     7.8577474687e-02
 1  3  1    -1.8397202668e-01
 1  3  2    -4.3264063024e-02
 1  3  3    -1.8397202668e-01
 2  1  1    -6.4375961336e-02
 2  1  2     6.4157809562e-02
 2  1  3     7.8577474687e-02
 2  2  1     1.0386398351e-01
 2  2  2     1.3890940342e-02
 2  2  3     1.0386398351e-01
 2  3  1     7.8577474687e-02
 2  3  2     6.4157809562e-02
 2  3  3    -6.4375961336e-02
 3  1  1    -1.8397202668e-01
 3  1  2    -4.3264063024e-02
 3  1  3    -1.8397202668e-01
 3  2  1     7.8577474687e-02
 3  2  2     6.4157809562e-02
 3  2  3    -6.4375961336e-02
 3  3  1    -1.6838612969e-01
 3  3  2    -1.1086710934e-01
 3  3  3    -1.2791238727e-01

    7
0.0000000000e+00 0.0000000000e+00 0.0000000000e+00
2.6941152656e+00 -2.6941152656e+00 0.0000000000e+00
     1      1      1
 1  1  1    -1.2791238727e-01
 1  1  2     1.6838612969e-01
 1  1  3     1.1086710934e-01
 1  2  1     1.8397202668e-01
 1  2  2    -1.8397202668e-01
 1  2  3    -4.3264063024e-02
 1  3  1     6.4375961336e-02
 1  3  2     7.8577474687e-02
 1  3  3     6.4157809562e-02
 2  1  1     1.8397202668e-01
 2  1  2    -1.8397202668e-01
 2  1  3    -4.3264063024e-02
 2  2  1    -1.6838612969e-01
 2  2  2     1.2791238727e-01
 2  2  3     1.1086710934e-01
 2  3  1     7.8577474687e-02
 2  3  2     6.4375961336e-02
 2  3  3    -6.4157809562e-02
 3  1  1     6.4375961336e-02
 3  1  2     7.8577474687e-02
 3  1  3     6.4157809562e-02
 3  2  1     7.8577474687e-02
 3  2  2     6.4375961336e-02
 3  2  3    -6.4157809562e-02
 3  3  1     1.0386398351e-01
 3  3  2    -1.0386398351e-01
 3  3  3    -1.3890940342e-02

    8
0.0000000000e+00 0.0000000000e+00 0.0000000000e+00
2.6941152656e+00 -2.6941152656e+00 0.0000000000e+00
     1      1      2
 1  1  1    -6.4277581542e-03
 1  1  2     2.3861371907e-02
 1  1  3    -2.3861371907e-02
 1  2  1     3.3136087545e-03
 1  2  2    -1.2146993755e-02
 1  2  3    -2.1663313628e-02
 1  3  1    -3.3136087545e-03
 1  3  2    -2.1663313628e-02
 1  3  3    -1.2146993755e-02
 2  1  1     3.3136087545e-03
 2  1  2    -1.2146993755e-02
 2  1  3    -2.1663313628e-02
 2  2  1     2.9540039675e-02
 2  2  2    -1.5426619570e-02
 2  2  3     5.6649687909e-02
 2  3  1     3.6817192401e-02
 2  3  2    -7.1642272203e-02
 2  3  3     7.1642272203e-02
 3  1  1    -3.3136087545e-03
 3  1  2    -2.1663313628e-02
 3  1  3    -1.2146993755e-02
 3  2  1     3.6817192401e-02
 3  2  2    -7.1642272203e-02
 3  2  3     7.1642272203e-02
 3  3  1     2.9540039675e-02
 3  3  2    -5.6649687909e-02
 3  3  3     1.5426619570e-02

    9
0.0000000000e+00 0.0000000000e+00 0.0000000000e+00
-2.6941152656e+00 0.0000000000e+00 -2.6941152656e+00
     1      1      1
 1  1  1     1.2791238727e-01
 1  1  2    -1.1086710934e-01
 1  1  3     1.6838612969e-01
 1  2  1    -6.4375961336e-02
 1  2  2    -6.4157809562e-02
 1  2  3     7.8577474687e-02
 1  3  1     1.8397202668e-01
 1  3  2    -4.3264063024e-02
 1  3  3     1.8397202668e-01
 2  1  1    -6.4375961336e-02
 2  1  2    -6.4157809562e-02
 2  1  3     7.8577474687e-02
 2  2  1    -1.0386398351e-01
 2  2  2     1.3890940342e-02
 2  2  3    -1.0386398351e-01
 2  3  1     7.8577474687e-02
 2  3  2    -6.4157809562e-02
 2  3  3    -6.4375961336e-02
 3  1  1     1.8397202668e-01
 3  1  2    -4.3264063024e-02
 3  1  3     1.8397202668e-01
 3  2  1     7.8577474687e-02
 3  2  2    -6.4157809562e-02
 3  2  3    -6.4375961336e-02
 3  3  1     1.6838612969e-01
 3  3  2    -1.1086710934e-01
 3  3  3     1.2791238727e-01

   10
0.0000000000e+00 0.0000000000e+00 0.0000000000e+00
-2.6941152656e+00 0.0000000000e+00 -2.6941152656e+00
     1      1      2
 1  1  1     3.1502442714e+00
 1  1  2    -6.3055208078e+00
 1  1  3     6.3055208078e+00
 1  2  1    -6.3253578093e+00
 1  2  2     6.3253578093e+00
 1  2  3    -8.6149541812e+00
 1  3  1     6.3253578093e+00
 1  3  2    -8.6149541812e+00
 1  3  3     6.3253578093e+00
 2  1  1    -6.3253578093e+00
 2  1  2     6.3253578093e+00
 2  1  3    -8.6149541812e+00
 2  2  1     6.3055208078e+00
 2  2  2    -3.1502442714e+00
 2  2  3     6.3055208078e+00
 2  3  1    -8.6149541812e+00
 2  3  2     6.3253578093e+00
 2  3  3    -6.3253578093e+00
 3  1  1     6.3253578093e+00
 3  1  2    -8.6149541812e+00
 3  1  3     6.3253578093e+00
 3  2  1    -8.6149541812e+00
 3  2  2     6.3253578093e+00
 3  2  3    -6.3253578093e+00
 3  3  1     6.3055208078e+00
 3  3  2    -6.3055208078e+00
 3  3  3     3.1502442714e+00

   11
0.0000000000e+00 0.0000000000e+00 0.0000000000e+00
-2.6941152656e+00 2.6941152656e+00 0.0000000000e+00
     1      1      1
 1  1  1     1.2791238727e-01
 1  1  2    -1.6838612969e-01
 1  1  3     1.1086710934e-01
 1  2  1    -1.8397202668e-01
 1  2  2     1.8397202668e-01
 1  2  3    -4.3264063024e-02
 1  3  1     6.4375961336e-02
 1  3  2     7.8577474687e-02
 1  3  3    -6.4157809562e-02
 2  1  1    -1.8397202668e-01
 2  1  2     1.8397202668e-01
 2  1  3    -4.3264063024e-02
 2  2  1     1.6838612969e-01
 2  2  2    -1.2791238727e-01
 2  2  3     1.1086710934e-01
 2  3  1     7.8577474687e-02
 2  3  2     6.4375961336e-02
 2  3  3     6.4157809562e-02
 3  1  1     6.4375961336e-02
 3  1  2     7.8577474687e-02
 3  1  3    -6.4157809562e-02
 3  2  1     7.8577474687e-02
 3  2  2     6.4375961336e-02
 3  2  3     6.4157809562e-02
 3  3  1    -1.0386398351e-01
 3  3  2     1.0386398351e-01
 3  3  3    -1.3890940342e-02

   12
0.0000000000e+00 0.0000000000e+00 0.0000000000e+00
-2.6941152656e+00 2.6941152656e+00 0.0000000000e+00
     1      1      2
 1  1  1    -1.5426619570e-02
 1  1  2     2.9540039675e-02
 1  1  3     5.6649687909e-02
 1  2  1    -1.2146993755e-02
 1  2  2     3.3136087545e-03
 1  2  3    -2.1663313628e-02
 1  3  1    -7.1642272203e-02
 1  3  2     3.6817192401e-02
 1  3  3     7.1642272203e-02
 2  1  1    -1.2146993755e-02
 2  1  2     3.3136087545e-03
 2  1  3    -2.1663313628e-02
 2  2  1     2.3861371907e-02
 2  2  2    -6.4277581542e-03
 2  2  3    -2.3861371907e-02
 2  3  1    -2.1663313628e-02
 2  3  2    -3.3136087545e-03
 2  3  3    -1.2146993755e-02
 3  1  1    -7.1642272203e-02
 3  1  2     3.6817192401e-02
 3  1  3     7.1642272203e-02
 3  2  1    -2.1663313628e-02
 3  2  2    -3.3136087545e-03
 3  2  3    -1.2146993755e-02
 3  3  1    -5.6649687909e-02
 3  3  2     2.9540039675e-02
 3  3  3     1.5426619570e-02

   13
0.0000000000e+00 0.0000000000e+00 0.0000000000e+00
-2.6941152656e+00 -2.6941152656e+00 -5.3882305312e+00
     1      1      2
 1  1  1    -1.5426619570e-02
 1  1  2    -5.6649687909e-02
 1  1  3    -2.9540039675e-02
 1  2  1     7.1642272203e-02
 1  2  2     7.1642272203e-02
 1  2  3     3.6817192401e-02
 1  3  1     1.2146993755e-02
 1  3  2    -2.1663313628e-02
 1  3  3     3.3136087545e-03
 2  1  1     7.1642272203e-02
 2  1  2     7.1642272203e-02
 2  1  3     3.6817192401e-02
 2  2  1    -5.6649687909e-02
 2  2  2    -1.5426619570e-02
 2  2  3    -2.9540039675e-02
 2  3  1    -2.1663313628e-02
 2  3  2     1.2146993755e-02
 2  3  3     3.3136087545e-03
 3  1  1     1.2146993755e-02
 3  1  2    -2.1663313628e-02
 3  1  3     3.3136087545e-03
 3  2  1    -2.1663313628e-02
 3  2  2     1.2146993755e-02
 3  2  3     3.3136087545e-03
 3  3  1     2.3861371907e-02
 3  3  2     2.3861371907e-02
 3  3  3     6.4277581542e-03

   14
0.0000000000e+00 0.0000000000e+00 0.0000000000e+00
2.6941152656e+00 2.6941152656e+00 0.0000000000e+00
     1      1      1
 1  1  1    -1.2791238727e-01
 1  1  2    -1.6838612969e-01
 1  1  3    -1.1086710934e-01
 1  2  1    -1.8397202668e-01
 1  2  2    -1.8397202668e-01
 1  2  3    -4.3264063024e-02
 1  3  1    -6.4375961336e-02
 1  3  2     7.8577474687e-02
 1  3  3     6.4157809562e-02
 2  1  1    -1.8397202668e-01
 2  1  2    -1.8397202668e-01
 2  1  3    -4.3264063024e-02
 2  2  1    -1.6838612969e-01
 2  2  2    -1.2791238727e-01
 2  2  3    -1.1086710934e-01
 2  3  1     7.8577474687e-02
 2  3  2    -6.4375961336e-02
 2  3  3     6.4157809562e-02
 3  1  1    -6.4375961336e-02
 3  1  2     7.8577474687e-02
 3  1  3     6.4157809562e-02
 3  2  1     7.8577474687e-02
 3  2  2    -6.4375961336e-02
 3  2  3     6.4157809562e-02
 3  3  1     1.0386398351e-01
 3  3  2     1.0386398351e-01
 3  3  3     1.3890940342e-02

   15
0.0000000000e+00 0.0000000000e+00 0.0000000000e+00
2.6941152656e+00 0.0000000000e+00 -2.6941152656e+00
     1      1      1
 1  1  1    -1.2791238727e-01
 1  1  2     1.1086710934e-01
 1  1  3     1.6838612969e-01
 1  2  1     6.4375961336e-02
 1  2  2     6.4157809562e-02
 1  2  3     7.8577474687e-02
 1  3  1     1.8397202668e-01
 1  3  2    -4.3264063024e-02
 1  3  3    -1.8397202668e-01
 2  1  1     6.4375961336e-02
 2  1  2     6.4157809562e-02
 2  1  3     7.8577474687e-02
 2  2  1     1.0386398351e-01
 2  2  2    -1.3890940342e-02
 2  2  3    -1.0386398351e-01
 2  3  1     7.8577474687e-02
 2  3  2    -6.4157809562e-02
 2  3  3     6.4375961336e-02
 3  1  1     1.8397202668e-01
 3  1  2    -4.3264063024e-02
 3  1  3    -1.8397202668e-01
 3  2  1     7.8577474687e-02
 3  2  2    -6.4157809562e-02
 3  2  3     6.4375961336e-02
 3  3  1    -1.6838612969e-01
 3  3  2     1.1086710934e-01
 3  3  3     1.2791238727e-01

   16
0.0000000000e+00 0.0000000000e+00 0.0000000000e+00
2.6941152656e+00 0.0000000000e+00 -2.6941152656e+00
     1      1      2
 1  1  1    -6.4277581542e-03
 1  1  2    -2.3861371907e-02
 1  1  3     2.3861371907e-02
 1  2  1    -3.3136087545e-03
 1  2  2    -1.2146993755e-02
 1  2  3    -2.1663313628e-02
 1  3  1     3.3136087545e-03
 1  3  2    -2.1663313628e-02
 1  3  3    -1.2146993755e-02
 2  1  1    -3.3136087545e-03
 2  1  2    -1.2146993755e-02
 2  1  3    -2.1663313628e-02
 2  2  1     2.9540039675e-02
 2  2  2     1.5426619570e-02
 2  2  3    -5.6649687909e-02
 2  3  1     3.6817192401e-02
 2  3  2     7.1642272203e-02
 2  3  3    -7.1642272203e-02
 3  1  1     3.3136087545e-03
 3  1  2    -2.1663313628e-02
 3  1  3    -1.2146993755e-02
 3  2  1     3.6817192401e-02
 3  2  2     7.1642272203e-02
 3  2  3    -7.1642272203e-02
 3  3  1     2.9540039675e-02
 3  3  2     5.6649687909e-02
 3  3  3    -1.5426619570e-02

   17
0.0000000000e+00 0.0000000000e+00 0.0000000000e+00
0.0000000000e+00 2.6941152656e+00 -2.6941152656e+00
     1      1      1
 1  1  1    -1.3890940342e-02
 1  1  2     1.0386398351e-01
 1  1  3    -1.0386398351e-01
 1  2  1     6.4157809562e-02
 1  2  2     6.4375961336e-02
 1  2  3     7.8577474687e-02
 1  3  1    -6.4157809562e-02
 1  3  2     7.8577474687e-02
 1  3  3     6.4375961336e-02
 2  1  1     6.4157809562e-02
 2  1  2     6.4375961336e-02
 2  1  3     7.8577474687e-02
 2  2  1     1.1086710934e-01
 2  2  2    -1.2791238727e-01
 2  2  3     1.6838612969e-01
 2  3  1    -4.3264063024e-02
 2  3  2     1.8397202668e-01
 2  3  3    -1.8397202668e-01
 3  1  1    -6.4157809562e-02
 3  1  2     7.8577474687e-02
 3  1  3     6.4375961336e-02
 3  2  1    -4.3264063024e-02
 3  2  2     1.8397202668e-01
 3  2  3    -1.8397202668e-01
 3  3  1     1.1086710934e-01
 3  3  2    -1.6838612969e-01
 3  3  3     1.2791238727e-01

   18
0.0000000000e+00 0.0000000000e+00 0.0000000000e+00
0.0000000000e+00 2.6941152656e+00 -2.6941152656e+00
     1      1      2
 1  1  1     1.5426619570e-02
 1  1  2     2.9540039675e-02
 1  1  3    -5.6649687909e-02
 1  2  1    -1.2146993755e-02
 1  2  2    -3.3136087545e-03
 1  2  3    -2.1663313628e-02
 1  3  1     7.1642272203e-02
 1  3  2     3.6817192401e-02
 1  3  3    -7.1642272203e-02
 2  1  1    -1.2146993755e-02
 2  1  2    -3.3136087545e-03
 2  1  3    -2.1663313628e-02
 2  2  1    -2.3861371907e-02
 2  2  2    -6.4277581542e-03
 2  2  3     2.3861371907e-02
 2  3  1    -2.1663313628e-02
 2  3  2     3.3136087545e-03
 2  3  3    -1.2146993755e-02
 3  1  1     7.1642272203e-02
 3  1  2     3.6817192401e-02
 3  1  3    -7.1642272203e-02
 3  2  1    -2.1663313628e-02
 3  2  2     3.3136087545e-03
 3  2  3    -1.2146993755e-02
 3  3  1     5.6649687909e-02
 3  3  2     2.9540039675e-02
 3  3  3    -1.5426619570e-02

   19
0.0000000000e+00 0.0000000000e+00 0.0000000000e+00
0.0000000000e+00 0.0000000000e+00 -5.3882305312e+00
     1      1      2
 1  1  1     1.5426619570e-02
 1  1  2     5.6649687909e-02
 1  1  3    -2.9540039675e-02
 1  2  1    -7.1642272203e-02
 1  2  2    -7.1642272203e-02
 1  2  3     3.6817192401e-02
 1  3  1     1.2146993755e-02
 1  3  2    -2.1663313628e-02
 1  3  3    -3.3136087545e-03
 2  1  1    -7.1642272203e-02
 2  1  2    -7.1642272203e-02
 2  1  3     3.6817192401e-02
 2  2  1     5.6649687909e-02
 2  2  2     1.5426619570e-02
 2  2  3    -2.9540039675e-02
 2  3  1    -2.1663313628e-02
 2  3  2     1.2146993755e-02
 2  3  3    -3.3136087545e-03
 3  1  1     1.2146993755e-02
 3  1  2    -2.1663313628e-02
 3  1  3    -3.3136087545e-03
 3  2  1    -2.1663313628e-02
 3  2  2     1.2146993755e-02
 3  2  3    -3.3136087545e-03
 3  3  1    -2.3861371907e-02
 3  3  2    -2.3861371907e-02
 3  3  3     6.4277581542e-03

   20
0.0000000000e+00 0.0000000000e+00 0.0000000000e+00
-2.6941152656e+00 -2.6941152656e+00 0.0000000000e+00
     1      1      1
 1  1  1     1.2791238727e-01
 1  1  2     1.6838612969e-01
 1  1  3    -1.1086710934e-01
 1  2  1     1.8397202668e-01
 1  2  2     1.8397202668e-01
 1  2  3    -4.3264063024e-02
 1  3  1    -6.4375961336e-02
 1  3  2     7.8577474687e-02
 1  3  3    -6.4157809562e-02
 2  1  1     1.8397202668e-01
 2  1  2     1.8397202668e-01
 2  1  3    -4.3264063024e-02
 2  2  1     1.6838612969e-01
 2  2  2     1.2791238727e-01
 2  2  3    -1.1086710934e-01
 2  3  1     7.8577474687e-02
 2  3  2    -6.4375961336e-02
 2  3  3    -6.4157809562e-02
 3  1  1    -6.4375961336e-02
 3  1  2     7.8577474687e-02
 3  1  3    -6.4157809562e-02
 3  2  1     7.8577474687e-02
 3  2  2    -6.4375961336e-02
 3  2  3    -6.4157809562e-02
 3  3  1    -1.0386398351e-01
 3  3  2    -1.0386398351e-01
 3  3  3     1.3890940342e-02

   21
0.0000000000e+00 0.0000000000e+00 0.0000000000e+00
-2.6941152656e+00 -2.6941152656e+00 0.0000000000e+00
     1      1      2
 1  1  1     3.1502442714e+00
 1  1  2     6.3055208078e+00
 1  1  3    -6.3055208078e+00
 1  2  1     6.3253578093e+00
 1  2  2     6.3253578093e+00
 1  2  3    -8.6149541812e+00
 1  3  1    -6.3253578093e+00
 1  3  2    -8.6149541812e+00
 1  3  3     6.3253578093e+00
 2  1  1     6.3253578093e+00
 2  1  2     6.3253578093e+00
 2  1  3    -8.6149541812e+00
 2  2  1     6.3055208078e+00
 2  2  2     3.1502442714e+00
 2  2  3    -6.3055208078e+00
 2  3  1    -8.6149541812e+00
 2  3  2    -6.3253578093e+00
 2  3  3     6.3253578093e+00
 3  1  1    -6.3253578093e+00
 3  1  2    -8.6149541812e+00
 3  1  3     6.3253578093e+00
 3  2  1    -8.6149541812e+00
 3  2  2    -6.3253578093e+00
 3  2  3     6.3253578093e+00
 3  3  1     6.3055208078e+00
 3  3  2     6.3055208078e+00
 3  3  3    -3.1502442714e+00

   22
0.0000000000e+00 0.0000000000e+00 0.0000000000e+00
-2.6941152656e+00 0.0000000000e+00 2.6941152656e+00
     1      1      1
 1  1  1     1.2791238727e-01
 1  1  2     1.1086710934e-01
 1  1  3    -1.6838612969e-01
 1  2  1     6.4375961336e-02
 1  2  2    -6.4157809562e-02
 1  2  3     7.8577474687e-02
 1  3  1    -1.8397202668e-01
 1  3  2    -4.3264063024e-02
 1  3  3     1.8397202668e-01
 2  1  1     6.4375961336e-02
 2  1  2    -6.4157809562e-02
 2  1  3     7.8577474687e-02
 2  2  1    -1.0386398351e-01
 2  2  2    -1.3890940342e-02
 2  2  3     1.0386398351e-01
 2  3  1     7.8577474687e-02
 2  3  2     6.4157809562e-02
 2  3  3     6.4375961336e-02
 3  1  1    -1.8397202668e-01
 3  1  2    -4.3264063024e-02
 3  1  3     1.8397202668e-01
 3  2  1     7.8577474687e-02
 3  2  2     6.4157809562e-02
 3  2  3     6.4375961336e-02
 3  3  1     1.6838612969e-01
 3  3  2     1.1086710934e-01
 3  3  3    -1.2791238727e-01

   23
0.0000000000e+00 0.0000000000e+00 0.0000000000e+00
-2.6941152656e+00 0.0000000000e+00 2.6941152656e+00
     1      1      2
 1  1  1    -1.5426619570e-02
 1  1  2     5.6649687909e-02
 1  1  3     2.9540039675e-02
 1  2  1    -7.1642272203e-02
 1  2  2     7.1642272203e-02
 1  2  3     3.6817192401e-02
 1  3  1    -1.2146993755e-02
 1  3  2    -2.1663313628e-02
 1  3  3     3.3136087545e-03
 2  1  1    -7.1642272203e-02
 2  1  2     7.1642272203e-02
 2  1  3     3.6817192401e-02
 2  2  1    -5.6649687909e-02
 2  2  2     1.5426619570e-02
 2  2  3     2.9540039675e-02
 2  3  1    -2.1663313628e-02
 2  3  2    -1.2146993755e-02
 2  3  3    -3.3136087545e-03
 3  1  1    -1.2146993755e-02
 3  1  2    -2.1663313628e-02
 3  1  3     3.3136087545e-03
 3  2  1    -2.1663313628e-02
 3  2  2    -1.2146993755e-02
 3  2  3    -3.3136087545e-03
 3  3  1     2.3861371907e-02
 3  3  2    -2.3861371907e-02
 3  3  3    -6.4277581542e-03

   24
0.0000000000e+00 0.0000000000e+00 0.0000000000e+00
-2.6941152656e+00 -5.3882305312e+00 -2.6941152656e+00
     1      1      2
 1  1  1    -1.5426619570e-02
 1  1  2    -2.9540039675e-02
 1  1  3    -5.6649687909e-02
 1  2  1     1.2146993755e-02
 1  2  2     3.3136087545e-03
 1  2  3    -2.1663313628e-02
 1  3  1     7.1642272203e-02
 1  3  2     3.6817192401e-02
 1  3  3     7.1642272203e-02
 2  1  1     1.2146993755e-02
 2  1  2     3.3136087545e-03
 2  1  3    -2.1663313628e-02
 2  2  1     2.3861371907e-02
 2  2  2     6.4277581542e-03
 2  2  3     2.3861371907e-02
 2  3  1    -2.1663313628e-02
 2  3  2     3.3136087545e-03
 2  3  3     1.2146993755e-02
 3  1  1     7.1642272203e-02
 3  1  2     3.6817192401e-02
 3  1  3     7.1642272203e-02
 3  2  1    -2.1663313628e-02
 3  2  2     3.3136087545e-03
 3  2  3     1.2146993755e-02
 3  3  1    -5.6649687909e-02
 3  3  2    -2.9540039675e-02
 3  3  3    -1.5426619570e-02

   25
0.0000000000e+00 0.0000000000e+00 0.0000000000e+00
0.0000000000e+00 -2.6941152656e+00 2.6941152656e+00
     1      1      1
 1  1  1    -1.3890940342e-02
 1  1  2    -1.0386398351e-01
 1  1  3     1.0386398351e-01
 1  2  1    -6.4157809562e-02
 1  2  2     6.4375961336e-02
 1  2  3     7.8577474687e-02
 1  3  1     6.4157809562e-02
 1  3  2     7.8577474687e-02
 1  3  3     6.4375961336e-02
 2  1  1    -6.4157809562e-02
 2  1  2     6.4375961336e-02
 2  1  3     7.8577474687e-02
 2  2  1     1.1086710934e-01
 2  2  2     1.2791238727e-01
 2  2  3    -1.6838612969e-01
 2  3  1    -4.3264063024e-02
 2  3  2    -1.8397202668e-01
 2  3  3     1.8397202668e-01
 3  1  1     6.4157809562e-02
 3  1  2     7.8577474687e-02
 3  1  3     6.4375961336e-02
 3  2  1    -4.3264063024e-02
 3  2  2    -1.8397202668e-01
 3  2  3     1.8397202668e-01
 3  3  1     1.1086710934e-01
 3  3  2     1.6838612969e-01
 3  3  3    -1.2791238727e-01

   26
0.0000000000e+00 0.0000000000e+00 0.0000000000e+00
0.0000000000e+00 -2.6941152656e+00 2.6941152656e+00
     1      1      2
 1  1  1     1.5426619570e-02
 1  1  2    -5.6649687909e-02
 1  1  3     2.9540039675e-02
 1  2  1     7.1642272203e-02
 1  2  2    -7.1642272203e-02
 1  2  3     3.6817192401e-02
 1  3  1    -1.2146993755e-02
 1  3  2    -2.1663313628e-02
 1  3  3    -3.3136087545e-03
 2  1  1     7.1642272203e-02
 2  1  2    -7.1642272203e-02
 2  1  3     3.6817192401e-02
 2  2  1     5.6649687909e-02
 2  2  2    -1.5426619570e-02
 2  2  3     2.9540039675e-02
 2  3  1    -2.1663313628e-02
 2  3  2    -1.2146993755e-02
 2  3  3     3.3136087545e-03
 3  1  1    -1.2146993755e-02
 3  1  2    -2.1663313628e-02
 3  1  3    -3.3136087545e-03
 3  2  1    -2.1663313628e-02
 3  2  2    -1.2146993755e-02
 3  2  3     3.3136087545e-03
 3  3  1    -2.3861371907e-02
 3  3  2     2.3861371907e-02
 3  3  3    -6.4277581542e-03

   27
0.0000000000e+00 0.0000000000e+00 0.0000000000e+00
0.0000000000e+00 -5.3882305312e+00 0.0000000000e+00
     1      1      2
 1  1  1     1.5426619570e-02
 1  1  2    -2.9540039675e-02
 1  1  3     5.6649687909e-02
 1  2  1     1.2146993755e-02
 1  2  2    -3.3136087545e-03
 1  2  3    -2.1663313628e-02
 1  3  1    -7.1642272203e-02
 1  3  2     3.6817192401e-02
 1  3  3    -7.1642272203e-02
 2  1  1     1.2146993755e-02
 2  1  2    -3.3136087545e-03
 2  1  3    -2.1663313628e-02
 2  2  1    -2.3861371907e-02
 2  2  2     6.4277581542e-03
 2  2  3    -2.3861371907e-02
 2  3  1    -2.1663313628e-02
 2  3  2    -3.3136087545e-03
 2  3  3     1.2146993755e-02
 3  1  1    -7.1642272203e-02
 3  1  2     3.6817192401e-02
 3  1  3    -7.1642272203e-02
 3  2  1    -2.1663313628e-02
 3  2  2    -3.3136087545e-03
 3  2  3     1.2146993755e-02
 3  3  1     5.6649687909e-02
 3  3  2    -2.9540039675e-02
 3  3  3     1.5426619570e-02

   28
0.0000000000e+00 0.0000000000e+00 0.0000000000e+00
-5.3882305312e+00 -2.6941152656e+00 -2.6941152656e+00
     1      1      2
 1  1  1     6.4277581542e-03
 1  1  2     2.3861371907e-02
 1  1  3     2.3861371907e-02
 1  2  1     3.3136087545e-03
 1  2  2     1.2146993755e-02
 1  2  3    -2.1663313628e-02
 1  3  1     3.3136087545e-03
 1  3  2    -2.1663313628e-02
 1  3  3     1.2146993755e-02
 2  1  1     3.3136087545e-03
 2  1  2     1.2146993755e-02
 2  1  3    -2.1663313628e-02
 2  2  1    -2.9540039675e-02
 2  2  2    -1.5426619570e-02
 2  2  3    -5.6649687909e-02
 2  3  1     3.6817192401e-02
 2  3  2     7.1642272203e-02
 2  3  3     7.1642272203e-02
 3  1  1     3.3136087545e-03
 3  1  2    -2.1663313628e-02
 3  1  3     1.2146993755e-02
 3  2  1     3.6817192401e-02
 3  2  2     7.1642272203e-02
 3  2  3     7.1642272203e-02
 3  3  1    -2.9540039675e-02
 3  3  2    -5.6649687909e-02
 3  3  3    -1.5426619570e-02

   29
0.0000000000e+00 0.0000000000e+00 0.0000000000e+00
-5.3882305312e+00 0.0000000000e+00 0.0000000000e+00
     1      1      2
 1  1  1     6.4277581542e-03
 1  1  2    -2.3861371907e-02
 1  1  3    -2.3861371907e-02
 1  2  1    -3.3136087545e-03
 1  2  2     1.2146993755e-02
 1  2  3    -2.1663313628e-02
 1  3  1    -3.3136087545e-03
 1  3  2    -2.1663313628e-02
 1  3  3     1.2146993755e-02
 2  1  1    -3.3136087545e-03
 2  1  2     1.2146993755e-02
 2  1  3    -2.1663313628e-02
 2  2  1    -2.9540039675e-02
 2  2  2     1.5426619570e-02
 2  2  3     5.6649687909e-02
 2  3  1     3.6817192401e-02
 2  3  2    -7.1642272203e-02
 2  3  3    -7.1642272203e-02
 3  1  1    -3.3136087545e-03
 3  1  2    -2.1663313628e-02
 3  1  3     1.2146993755e-02
 3  2  1     3.6817192401e-02
 3  2  2    -7.1642272203e-02
 3  2  3    -7.1642272203e-02
 3  3  1    -2.9540039675e-02
 3  3  2     5.6649687909e-02
 3  3  3     1.5426619570e-02

   30
0.0000000000e+00 0.0000000000e+00 0.0000000000e+00
0.0000000000e+00 0.0000000000e+00 0.0000000000e+00
     1      2      1
 1  1  1    -3.1502442714e+00
 1  1  2    -6.3253578093e+00
 1  1  3    -6.3253578093e+00
 1  2  1    -6.3055208078e+00
 1  2  2    -6.3253578093e+00
 1  2  3    -8.6149541812e+00
 1  3  1    -6.3055208078e+00
 1  3  2    -8.6149541812e+00
 1  3  3    -6.3253578093e+00
 2  1  1    -6.3253578093e+00
 2  1  2    -6.3055208078e+00
 2  1  3    -8.6149541812e+00
 2  2  1    -6.3253578093e+00
 2  2  2    -3.1502442714e+00
 2  2  3    -6.3253578093e+00
 2  3  1    -8.6149541812e+00
 2  3  2    -6.3055208078e+00
 2  3  3    -6.3253578093e+00
 3  1  1    -6.3253578093e+00
 3  1  2    -8.6149541812e+00
 3  1  3    -6.3055208078e+00
 3  2  1    -8.6149541812e+00
 3  2  2    -6.3253578093e+00
 3  2  3    -6.3055208078e+00
 3  3  1    -6.3253578093e+00
 3  3  2    -6.3253578093e+00
 3  3  3    -3.1502442714e+00

   31
0.0000000000e+00 0.0000000000e+00 0.0000000000e+00
0.0000000000e+00 0.0000000000e+00 0.0000000000e+00
     1      2      2
 1  1  1     3.1502442714e+00
 1  1  2     6.3253578093e+00
 1  1  3     6.3253578093e+00
 1  2  1     6.3253578093e+00
 1  2  2     6.3055208078e+00
 1  2  3     8.6149541812e+00
 1  3  1     6.3253578093e+00
 1  3  2     8.6149541812e+00
 1  3  3     6.3055208078e+00
 2  1  1     6.3055208078e+00
 2  1  2     6.3253578093e+00
 2  1  3     8.6149541812e+00
 2  2  1     6.3253578093e+00
 2  2  2     3.1502442714e+00
 2  2  3     6.3253578093e+00
 2  3  1     8.6149541812e+00
 2  3  2     6.3253578093e+00
 2  3  3     6.3055208078e+00
 3  1  1     6.3055208078e+00
 3  1  2     8.6149541812e+00
 3  1  3     6.3253578093e+00
 3  2  1     8.6149541812e+00
 3  2  2     6.3055208078e+00
 3  2  3     6.3253578093e+00
 3  3  1     6.3253578093e+00
 3  3  2     6.3253578093e+00
 3  3  3     3.1502442714e+00

   32
0.0000000000e+00 0.0000000000e+00 0.0000000000e+00
0.0000000000e+00 2.6941152656e+00 2.6941152656e+00
     1      2      1
 1  1  1    -3.9257526413e-02
 1  1  2    -8.0000291165e-02
 1  1  3    -8.0000291165e-02
 1  2  1     0.0000000000e+00
 1  2  2     1.0169976927e-01
 1  2  3    -1.5369198474e-01
 1  3  1     0.0000000000e+00
 1  3  2    -1.5369198474e-01
 1  3  3     1.0169976927e-01
 2  1  1     8.0000291165e-02
 2  1  2     2.3570405979e-02
 2  1  3    -2.3874490144e-01
 2  2  1     1.0169976927e-01
 2  2  2     0.0000000000e+00
 2  2  3     1.2730080163e-02
 2  3  1    -1.5369198474e-01
 2  3  2     0.0000000000e+00
 2  3  3    -1.2730080163e-02
 3  1  1     8.0000291165e-02
 3  1  2    -2.3874490144e-01
 3  1  3     2.3570405979e-02
 3  2  1    -1.5369198474e-01